# vtk DataFile Version 3.0
output
ASCII
DATASET UNSTRUCTURED_GRID
POINTS 363 float 
0.0 0 0.0 
2.5 0 0.0 
5.0 0 0.0 
7.5 0 0.0 
10.0 0 0.0 
12.5 0 0.0 
15.0 0 0.0 
17.5 0 0.0 
20.0 0 0.0 
21.875 0 0.0 
23.75 0 0.0 
25.625 0 0.0 
27.5 0 0.0 
29.375 0 0.0 
31.25 0 0.0 
33.125 0 0.0 
35.0 0 0.0 
36.875 0 0.0 
38.75 0 0.0 
40.625 0 0.0 
42.5 0 0.0 
44.375 0 0.0 
46.25 0 0.0 
48.125 0 0.0 
50.0 0 0.0 
52.5 0 0.0 
55.0 0 0.0 
57.5 0 0.0 
60.0 0 0.0 
62.5 0 0.0 
65.0 0 0.0 
67.5 0 0.0 
70.0 0 0.0 
0.0 0 0.5 
2.625 0 0.5 
5.25 0 0.5 
7.875 0 0.5 
10.5 0 0.5 
13.125 0 0.5 
15.75 0 0.5 
18.375 0 0.5 
21.0 0 0.5 
22.75 0 0.5 
24.5 0 0.5 
26.25 0 0.5 
28.0 0 0.5 
29.75 0 0.5 
31.5 0 0.5 
33.25 0 0.5 
35.0 0 0.5 
36.75 0 0.5 
38.5 0 0.5 
40.25 0 0.5 
42.0 0 0.5 
43.75 0 0.5 
45.5 0 0.5 
47.25 0 0.5 
49.0 0 0.5 
51.625 0 0.5 
54.25 0 0.5 
56.875 0 0.5 
59.5 0 0.5 
62.125 0 0.5 
64.75 0 0.5 
67.375 0 0.5 
70.0 0 0.5 
0.0 0 1.0 
2.75 0 1.0 
5.5 0 1.0 
8.25 0 1.0 
11.0 0 1.0 
13.75 0 1.0 
16.5 0 1.0 
19.25 0 1.0 
22.0 0 1.0 
23.625 0 1.0 
25.25 0 1.0 
26.875 0 1.0 
28.5 0 1.0 
30.125 0 1.0 
31.75 0 1.0 
33.375 0 1.0 
35.0 0 1.0 
36.625 0 1.0 
38.25 0 1.0 
39.875 0 1.0 
41.5 0 1.0 
43.125 0 1.0 
44.75 0 1.0 
46.375 0 1.0 
48.0 0 1.0 
50.75 0 1.0 
53.5 0 1.0 
56.25 0 1.0 
59.0 0 1.0 
61.75 0 1.0 
64.5 0 1.0 
67.25 0 1.0 
70.0 0 1.0 
0.0 0 1.5 
2.875 0 1.5 
5.75 0 1.5 
8.625 0 1.5 
11.5 0 1.5 
14.375 0 1.5 
17.25 0 1.5 
20.125 0 1.5 
23.0 0 1.5 
24.5 0 1.5 
26.0 0 1.5 
27.5 0 1.5 
29.0 0 1.5 
30.5 0 1.5 
32.0 0 1.5 
33.5 0 1.5 
35.0 0 1.5 
36.5 0 1.5 
38.0 0 1.5 
39.5 0 1.5 
41.0 0 1.5 
42.5 0 1.5 
44.0 0 1.5 
45.5 0 1.5 
47.0 0 1.5 
49.875 0 1.5 
52.75 0 1.5 
55.625 0 1.5 
58.5 0 1.5 
61.375 0 1.5 
64.25 0 1.5 
67.125 0 1.5 
70.0 0 1.5 
0.0 0 2.0 
3.0 0 2.0 
6.0 0 2.0 
9.0 0 2.0 
12.0 0 2.0 
15.0 0 2.0 
18.0 0 2.0 
21.0 0 2.0 
24.0 0 2.0 
25.375 0 2.0 
26.75 0 2.0 
28.125 0 2.0 
29.5 0 2.0 
30.875 0 2.0 
32.25 0 2.0 
33.625 0 2.0 
35.0 0 2.0 
36.375 0 2.0 
37.75 0 2.0 
39.125 0 2.0 
40.5 0 2.0 
41.875 0 2.0 
43.25 0 2.0 
44.625 0 2.0 
46.0 0 2.0 
49.0 0 2.0 
52.0 0 2.0 
55.0 0 2.0 
58.0 0 2.0 
61.0 0 2.0 
64.0 0 2.0 
67.0 0 2.0 
70.0 0 2.0 
0.0 0 2.5 
3.125 0 2.5 
6.25 0 2.5 
9.375 0 2.5 
12.5 0 2.5 
15.625 0 2.5 
18.75 0 2.5 
21.875 0 2.5 
25.0 0 2.5 
26.25 0 2.5 
27.5 0 2.5 
28.75 0 2.5 
30.0 0 2.5 
31.25 0 2.5 
32.5 0 2.5 
33.75 0 2.5 
35.0 0 2.5 
36.25 0 2.5 
37.5 0 2.5 
38.75 0 2.5 
40.0 0 2.5 
41.25 0 2.5 
42.5 0 2.5 
43.75 0 2.5 
45.0 0 2.5 
48.125 0 2.5 
51.25 0 2.5 
54.375 0 2.5 
57.5 0 2.5 
60.625 0 2.5 
63.75 0 2.5 
66.875 0 2.5 
70.0 0 2.5 
0.0 0 3.0 
3.25 0 3.0 
6.5 0 3.0 
9.75 0 3.0 
13.0 0 3.0 
16.25 0 3.0 
19.5 0 3.0 
22.75 0 3.0 
26.0 0 3.0 
27.125 0 3.0 
28.25 0 3.0 
29.375 0 3.0 
30.5 0 3.0 
31.625 0 3.0 
32.75 0 3.0 
33.875 0 3.0 
35.0 0 3.0 
36.125 0 3.0 
37.25 0 3.0 
38.375 0 3.0 
39.5 0 3.0 
40.625 0 3.0 
41.75 0 3.0 
42.875 0 3.0 
44.0 0 3.0 
47.25 0 3.0 
50.5 0 3.0 
53.75 0 3.0 
57.0 0 3.0 
60.25 0 3.0 
63.5 0 3.0 
66.75 0 3.0 
70.0 0 3.0 
0.0 0 3.5 
3.25 0 3.5 
6.5 0 3.5 
9.75 0 3.5 
13.0 0 3.5 
16.25 0 3.5 
19.5 0 3.5 
22.75 0 3.5 
26.0 0 3.5 
27.125 0 3.5 
28.25 0 3.5 
29.375 0 3.5 
30.5 0 3.5 
31.625 0 3.5 
32.75 0 3.5 
33.875 0 3.5 
35.0 0 3.5 
36.125 0 3.5 
37.25 0 3.5 
38.375 0 3.5 
39.5 0 3.5 
40.625 0 3.5 
41.75 0 3.5 
42.875 0 3.5 
44.0 0 3.5 
47.25 0 3.5 
50.5 0 3.5 
53.75 0 3.5 
57.0 0 3.5 
60.25 0 3.5 
63.5 0 3.5 
66.75 0 3.5 
70.0 0 3.5 
0.0 0 4.0 
3.25 0 4.0 
6.5 0 4.0 
9.75 0 4.0 
13.0 0 4.0 
16.25 0 4.0 
19.5 0 4.0 
22.75 0 4.0 
26.0 0 4.0 
27.125 0 4.0 
28.25 0 4.0 
29.375 0 4.0 
30.5 0 4.0 
31.625 0 4.0 
32.75 0 4.0 
33.875 0 4.0 
35.0 0 4.0 
36.125 0 4.0 
37.25 0 4.0 
38.375 0 4.0 
39.5 0 4.0 
40.625 0 4.0 
41.75 0 4.0 
42.875 0 4.0 
44.0 0 4.0 
47.25 0 4.0 
50.5 0 4.0 
53.75 0 4.0 
57.0 0 4.0 
60.25 0 4.0 
63.5 0 4.0 
66.75 0 4.0 
70.0 0 4.0 
0.0 0 4.5 
3.25 0 4.5 
6.5 0 4.5 
9.75 0 4.5 
13.0 0 4.5 
16.25 0 4.5 
19.5 0 4.5 
22.75 0 4.5 
26.0 0 4.5 
27.125 0 4.5 
28.25 0 4.5 
29.375 0 4.5 
30.5 0 4.5 
31.625 0 4.5 
32.75 0 4.5 
33.875 0 4.5 
35.0 0 4.5 
36.125 0 4.5 
37.25 0 4.5 
38.375 0 4.5 
39.5 0 4.5 
40.625 0 4.5 
41.75 0 4.5 
42.875 0 4.5 
44.0 0 4.5 
47.25 0 4.5 
50.5 0 4.5 
53.75 0 4.5 
57.0 0 4.5 
60.25 0 4.5 
63.5 0 4.5 
66.75 0 4.5 
70.0 0 4.5 
0.0 0 5.0 
3.25 0 5.0 
6.5 0 5.0 
9.75 0 5.0 
13.0 0 5.0 
16.25 0 5.0 
19.5 0 5.0 
22.75 0 5.0 
26.0 0 5.0 
27.125 0 5.0 
28.25 0 5.0 
29.375 0 5.0 
30.5 0 5.0 
31.625 0 5.0 
32.75 0 5.0 
33.875 0 5.0 
35.0 0 5.0 
36.125 0 5.0 
37.25 0 5.0 
38.375 0 5.0 
39.5 0 5.0 
40.625 0 5.0 
41.75 0 5.0 
42.875 0 5.0 
44.0 0 5.0 
47.25 0 5.0 
50.5 0 5.0 
53.75 0 5.0 
57.0 0 5.0 
60.25 0 5.0 
63.5 0 5.0 
66.75 0 5.0 
70.0 0 5.0 
CELLS 80 800 
9 0 2 68 66 1 35 67 33 34 
9 2 4 70 68 3 37 69 35 36 
9 4 6 72 70 5 39 71 37 38 
9 6 8 74 72 7 41 73 39 40 
9 8 10 76 74 9 43 75 41 42 
9 10 12 78 76 11 45 77 43 44 
9 12 14 80 78 13 47 79 45 46 
9 14 16 82 80 15 49 81 47 48 
9 16 18 84 82 17 51 83 49 50 
9 18 20 86 84 19 53 85 51 52 
9 20 22 88 86 21 55 87 53 54 
9 22 24 90 88 23 57 89 55 56 
9 24 26 92 90 25 59 91 57 58 
9 26 28 94 92 27 61 93 59 60 
9 28 30 96 94 29 63 95 61 62 
9 30 32 98 96 31 65 97 63 64 
9 66 68 134 132 67 101 133 99 100 
9 68 70 136 134 69 103 135 101 102 
9 70 72 138 136 71 105 137 103 104 
9 72 74 140 138 73 107 139 105 106 
9 74 76 142 140 75 109 141 107 108 
9 76 78 144 142 77 111 143 109 110 
9 78 80 146 144 79 113 145 111 112 
9 80 82 148 146 81 115 147 113 114 
9 82 84 150 148 83 117 149 115 116 
9 84 86 152 150 85 119 151 117 118 
9 86 88 154 152 87 121 153 119 120 
9 88 90 156 154 89 123 155 121 122 
9 90 92 158 156 91 125 157 123 124 
9 92 94 160 158 93 127 159 125 126 
9 94 96 162 160 95 129 161 127 128 
9 96 98 164 162 97 131 163 129 130 
9 132 134 200 198 133 167 199 165 166 
9 134 136 202 200 135 169 201 167 168 
9 136 138 204 202 137 171 203 169 170 
9 138 140 206 204 139 173 205 171 172 
9 140 142 208 206 141 175 207 173 174 
9 142 144 210 208 143 177 209 175 176 
9 144 146 212 210 145 179 211 177 178 
9 146 148 214 212 147 181 213 179 180 
9 148 150 216 214 149 183 215 181 182 
9 150 152 218 216 151 185 217 183 184 
9 152 154 220 218 153 187 219 185 186 
9 154 156 222 220 155 189 221 187 188 
9 156 158 224 222 157 191 223 189 190 
9 158 160 226 224 159 193 225 191 192 
9 160 162 228 226 161 195 227 193 194 
9 162 164 230 228 163 197 229 195 196 
9 198 200 266 264 199 233 265 231 232 
9 200 202 268 266 201 235 267 233 234 
9 202 204 270 268 203 237 269 235 236 
9 204 206 272 270 205 239 271 237 238 
9 206 208 274 272 207 241 273 239 240 
9 208 210 276 274 209 243 275 241 242 
9 210 212 278 276 211 245 277 243 244 
9 212 214 280 278 213 247 279 245 246 
9 214 216 282 280 215 249 281 247 248 
9 216 218 284 282 217 251 283 249 250 
9 218 220 286 284 219 253 285 251 252 
9 220 222 288 286 221 255 287 253 254 
9 222 224 290 288 223 257 289 255 256 
9 224 226 292 290 225 259 291 257 258 
9 226 228 294 292 227 261 293 259 260 
9 228 230 296 294 229 263 295 261 262 
9 264 266 332 330 265 299 331 297 298 
9 266 268 334 332 267 301 333 299 300 
9 268 270 336 334 269 303 335 301 302 
9 270 272 338 336 271 305 337 303 304 
9 272 274 340 338 273 307 339 305 306 
9 274 276 342 340 275 309 341 307 308 
9 276 278 344 342 277 311 343 309 310 
9 278 280 346 344 279 313 345 311 312 
9 280 282 348 346 281 315 347 313 314 
9 282 284 350 348 283 317 349 315 316 
9 284 286 352 350 285 319 351 317 318 
9 286 288 354 352 287 321 353 319 320 
9 288 290 356 354 289 323 355 321 322 
9 290 292 358 356 291 325 357 323 324 
9 292 294 360 358 293 327 359 325 326 
9 294 296 362 360 295 329 361 327 328 
CELL_TYPES 80
28 28 28 28 28 28 28 28 28 28 28 28 28 28 28 28 28 28 28 28 28 28 28 28 28 28 28 28 28 28 28 28 28 28 28 28 28 28 28 28 28 28 28 28 28 28 28 28 28 28 28 28 28 28 28 28 28 28 28 28 28 28 28 28 28 28 28 28 28 28 28 28 28 28 28 28 28 28 28 28 
CELL_DATA 80
SCALARS strainxx float
LOOKUP_TABLE default
-7.997096334075706e-06
-2.992881109330348e-05
-3.7086459547087385e-05
-3.5562312923947364e-05
0.001858559994515011
-8.524373859279417e-05
0.00018340694631993092
-0.00012746199058461565
0.00011792309839114297
-0.00048103061532422215
0.0012658691384053867
-0.0026997657050806777
1.3478935382872427e-05
3.0804009391158605e-05
2.8202771706762964e-05
1.41154035242969e-05
-8.567734157257229e-06
-3.5088829286049045e-05
-4.109466171896231e-05
-1.1372637369876331e-05
0.0021099371323207235
0.00016422317334527373
0.00022129949885330073
3.259035047608381e-05
2.651265175411556e-05
-0.0003345979482961426
0.0011485800305816199
-0.0033159956920166085
-8.02357666663213e-06
3.2464414977092876e-05
3.178988851054333e-05
1.6129098747312814e-05
-1.0162223694057056e-05
-4.1099275408013554e-05
-4.19513194657286e-05
2.519330695636035e-06
0.0005410324392174361
0.0004739540064462839
-2.689477992420363e-05
0.00012174748996098304
-5.952826036913545e-05
0.0003222554555070318
-0.00015673025670095945
-0.0012010061484607625
-5.484740108149796e-06
3.4496922468955155e-05
3.632641183160897e-05
1.7663590217678737e-05
-1.1809542368197791e-05
-4.491307902646615e-05
-4.735329025292266e-05
-2.443860691989001e-06
-5.1100488838696636e-05
4.6876023125522415e-05
-1.7093839122528963e-05
-1.3850643656145206e-06
1.297532306796206e-05
2.0830532221653883e-05
-4.290157564347443e-06
8.858022458746909e-06
-1.1868519630408324e-06
4.3422243996356775e-05
4.0644158969554764e-05
1.821373554498089e-05
-1.317539682271653e-05
-4.772702354536057e-05
-5.2450607548371917e-05
-3.8349461460468865e-05
-7.783365410704371e-05
3.645425083432505e-05
-2.849466023144809e-05
-1.099653095993917e-05
1.2353285524057397e-05
3.160498934905964e-05
2.691774990677019e-06
3.5105758486798356e-05
3.4669624695291355e-05
5.373604436439427e-05
4.4982712438009e-05
1.7993509169780224e-05
